Force field parameters were prepared using the LigParGen server. Post-cleaning of redundant atom types was performed for clarity in SI, while all simulations were carried out using the original raw LigParGen output file.

8221 atoms
12 atom types
6229 bonds
22 bond types
6383 angles
34 angle types
477 dihedrals
29 dihedral types
121 impropers
3 improper types

-3.2319051999999999e+01 3.2319052000000056e+01 xlo xhi
-3.2319051999999999e+01 3.2319051999999999e+01 ylo yhi
-3.2319051999999999e+01 3.2319051999999999e+01 zlo zhi

Masses

1	1.008	#HT
2	12.011	#CT
3	12.011	#CA
4	12.011	#CA
5	1.008	#HA
6	15.999	#O
7	15.999	#OS
8	1.008	#H
9	14.007	#N
10	32.06	#S
11	13.0107	#CH (chloroform)
12	35.453	#Cl

Pair Coeffs # lj/cut/coul/long

1	0.03	2.5
2	0.066	3.5
3	0.07	3.55
4	0.076	3.55
5	0.03	2.42
6	0.21	2.96
7	0.14	2.9
8	0	0
9	0.17	3.25
10	0.355	3.6
11	0.08	3.8
12	0.3	3.47

Bond Coeffs # harmonic

1	214	1.327	#ester_bond
2	222	1.81	#CT-S
3	250	1.76	#S-CA
4	268	1.529	#CT-CT
5	317	1.51	#CT-CA
6	320	1.41	#O-CT
7	337	1.449	#N-CT
8	337	1.475	#CT-NA
9	340	1.09	#CT-HC
10	367	1.08	#CA-HA
11	410	1.444	#CA-C
12	418	1.388	#N-CO
13	427	1.381	#CA-N
14	434	1.01	#N-H
15	448	1.365	#N-CA
16	450	1.364	#CA-O
17	469	1.4	#CA-CA
18	490	1.335	#N-CO
19	502	1.324	#CA-N
20	549	1.34	#(CH3)C-CA
21	570	1.229	#C-O
22 469 1.758   #CH(chloroform)-Cl

Angle Coeffs # harmonic

1	33	107.8
2	35	109.5
3	35	116.8
4	35	118
5	35	120
6	37.5	110.7
7	50	114.7
8	50	118
9	50	121.9
10	51.65	110.58
11	60	119.16
12	62	104.2
13	63	112.4
14	63	120
15	70	114.1
16	70	118.6
17	70	119.7
18	70	120
19	70	121.2
20	70	121.6
21	70	123.3
22	70	124
23	70	126.4
24	70	129.1
25	75	111
26	80	109.7
27	80	120.6
28	80	122.9
29	80	125.3
30	81	111.4
31	83	116.9
32	83	123.4
33	85	120.7
34	33	111.3

Dihedral Coeffs # opls

1	-3.5	3	0	0
2	-2.365	0.912	-0.85	0
3	-2	5	0	0
4	-1.013	-0.709	0.473	0
5	0	0	-0.372	0
6	0	0	0	0
7	0	0	0.3	0
8	0	0	0.452	0
9	0	0	0.464	0
10	0	0	0.647	0
11	0	0	0.76	0
12	0	0.462	0	0
13	0	2.5	0	0
14	0	3	0	0
15	0	4.8	0	0
16	0	4.9	0	0
17	0	5	0	0
18	0	6.089	0	0
19	0	7.25	0	0
20	0	14	0	0
21	0.9	0.23	-0.505	0
22	0.925	-0.576	0.677	0
23	1	-0.35	0	0
24	1.428	0.086	0.029	0
25	2	0	0	0
26	2.3	6.089	0	0
27	2.5	6	0	0
28	4.753	-0.734	0	0
29	11.035	-0.968	0.27	0

Improper Coeffs # cvff

1 0.0 -1 2
2 2.5 -1 2
3 10.5 -1 2

Atoms # full

1	1	1	0.100200	-8.712233	-2.182267	1.000448	0	0	0
2	1	2	0.057500	-8.548027	-2.720910	0.058281	0	0	0
3	1	9	-0.854900	-9.227717	-2.063614	-1.093359	0	0	0
4	1	1	0.100200	-7.452946	-2.633681	-0.112867	0	0	0
5	1	1	0.100200	-8.838864	-3.815694	0.187584	0	0	0
6	1	2	0.203900	-9.459352	-2.975923	-2.238410	0	0	0
7	1	3	0.734900	-9.492415	-0.780461	-1.222343	0	0	0
8	1	3	-0.087200	-10.254336	-4.199795	-2.016885	0	0	0
9	1	1	0.122000	-9.902220	-2.437757	-3.050590	0	0	0
10	1	1	0.122000	-8.493036	-3.172816	-2.631921	0	0	0
11	1	7	-0.342900	-9.118730	-0.119095	-0.100596	0	0	0
12	1	6	-0.495100	-9.855014	-0.255362	-2.299191	0	0	0
13	1	3	-0.135300	-9.996003	-5.444663	-2.636222	0	0	0
14	1	3	-0.149100	-11.441722	-4.062365	-1.189606	0	0	0
15	1	5	0.144100	-9.142047	-5.647000	-3.350916	0	0	0
16	1	3	-0.145700	-10.882396	-6.507330	-2.480960	0	0	0
17	1	5	0.159900	-11.573078	-3.159538	-0.666505	0	0	0
18	1	3	0.116800	-12.347513	-5.144357	-1.025303	0	0	0
19	1	5	0.158100	-10.686280	-7.453944	-2.932651	0	0	0
20	1	3	0.109700	-12.082465	-6.350631	-1.688391	0	0	0
21	1	7	-0.368100	-13.454972	-5.008485	-0.180581	0	0	0
22	1	7	-0.368400	-12.979290	-7.436092	-1.544866	0	0	0
23	1	2	-0.005700	-13.992880	-3.725535	0.116258	0	0	0
24	1	2	-0.007400	-13.318146	-7.913278	-2.826519	0	0	0
25	1	1	0.087600	-13.398856	-3.176708	0.820187	0	0	0
26	1	1	0.087600	-15.025325	-3.958319	0.497710	0	0	0
27	1	1	0.087600	-13.929139	-3.186154	-0.830535	0	0	0
28	1	1	0.087200	-13.685632	-7.178861	-3.484056	0	0	0
29	1	1	0.087200	-14.031307	-8.683815	-2.691116	0	0	0
30	1	1	0.087200	-12.524230	-8.323149	-3.390888	0	0	0
31	1	3	0.073100	-9.608777	1.143393	0.075974	0	0	0
32	1	3	-0.131300	-8.711290	2.238775	-0.144650	0	0	0
33	1	3	0.168200	-10.920821	1.259408	0.587375	0	0	0
34	1	5	0.171800	-7.718402	2.136939	-0.429809	0	0	0
35	1	3	-0.156400	-9.140979	3.482981	0.187101	0	0	0
36	1	7	-0.341600	-11.668117	0.182536	0.892273	0	0	0
37	1	3	-0.130000	-11.379645	2.621165	0.818407	0	0	0
38	1	5	0.142300	-8.587526	4.356512	-0.110765	0	0	0
39	1	3	-0.080400	-10.521831	3.725981	0.543382	0	0	0
40	1	2	-0.009100	-11.426510	-0.454200	2.142723	0	0	0
41	1	5	0.162900	-12.348950	2.714262	1.159226	0	0	0
42	1	2	0.214400	-11.029050	5.128459	0.698178	0	0	0
43	1	1	0.089200	-10.354036	-0.798041	2.165047	0	0	0
44	1	1	0.089200	-12.092999	-1.281243	2.077566	0	0	0
45	1	1	0.089200	-11.712260	0.161282	2.994332	0	0	0
46	1	9	-0.954000	-12.427966	5.215451	0.980101	0	0	0
47	1	1	0.122600	-10.883200	5.743822	-0.208312	0	0	0
48	1	1	0.122600	-10.371104	5.626441	1.425600	0	0	0
49	1	2	0.070000	-13.358243	5.363389	-0.125734	0	0	0
50	1	3	0.751400	-12.860564	5.252731	2.272141	0	0	0
51	1	1	0.100800	-13.925897	4.387336	-0.279873	0	0	0
52	1	1	0.100800	-12.890960	5.541410	-1.116168	0	0	0
53	1	1	0.100800	-14.027532	6.193593	0.140970	0	0	0
54	1	7	-0.317200	-14.225796	5.213960	2.371768	0	0	0
55	1	6	-0.404600	-12.101714	5.258356	3.206893	0	0	0
56	1	3	0.069300	-14.855510	5.126683	3.606317	0	0	0
57	1	3	-0.180900	-15.273844	3.852449	4.111209	0	0	0
58	1	3	0.159700	-15.277793	6.336826	4.252069	0	0	0
59	1	5	0.157500	-15.042983	2.899091	3.680530	0	0	0
60	1	3	-0.119800	-16.141172	3.776678	5.190965	0	0	0
61	1	7	-0.339900	-14.863786	7.558535	3.761440	0	0	0
62	1	3	-0.140300	-16.173836	6.215136	5.320182	0	0	0
63	1	5	0.161300	-16.481175	2.843909	5.610104	0	0	0
64	1	3	-0.112700	-16.557638	4.967238	5.789812	0	0	0
65	1	2	-0.017200	-15.217975	8.699236	4.478869	0	0	0
66	1	5	0.162900	-16.580809	7.076243	5.891050	0	0	0
67	1	2	0.196200	-17.298503	4.875566	7.145833	0	0	0
68	1	1	0.096700	-16.342386	8.871991	4.355403	0	0	0
69	1	1	0.096700	-14.807035	9.646515	4.038716	0	0	0
70	1	1	0.096700	-14.846469	8.591571	5.548579	0	0	0
71	1	9	-0.859500	-16.387126	5.193462	8.282923	0	0	0
72	1	1	0.130600	-17.796181	3.891512	7.245231	0	0	0
73	1	1	0.130600	-18.218745	5.451975	7.119461	0	0	0
74	1	2	0.140400	-15.763578	4.010372	8.896209	0	0	0
75	1	3	0.742500	-16.387782	6.437419	8.880241	0	0	0
76	1	2	-0.114900	-16.528714	3.358664	10.049983	0	0	0
77	1	1	0.124600	-14.797681	4.347721	9.339874	0	0	0
78	1	1	0.124600	-15.481214	3.269642	8.190738	0	0	0
79	1	7	-0.334400	-15.838168	6.437633	10.035216	0	0	0
80	1	6	-0.475100	-17.070084	7.335746	8.395968	0	0	0
81	1	10	-0.121000	-17.728352	2.178598	9.404386	0	0	0
82	1	1	0.143900	-15.884947	2.763920	10.741200	0	0	0
83	1	1	0.143900	-17.113045	4.102804	10.695884	0	0	0
84	1	3	0.137400	-15.870784	7.478158	10.924034	0	0	0
85	1	3	0.693300	-18.027878	1.084614	10.743257	0	0	0
86	1	3	-0.165100	-15.520600	8.752007	10.463116	0	0	0
87	1	3	0.130500	-16.291792	7.183018	12.219202	0	0	0
88	1	9	-0.683200	-18.800962	0.010452	10.505447	0	0	0
89	1	9	-1.031800	-17.609119	1.533569	11.944070	0	0	0
90	1	3	0.847000	-19.285409	-0.528947	11.605700	0	0	0
91	1	3	1.060300	-18.006831	0.799020	12.956286	0	0	0
92	1	9	-0.833000	-18.923475	-0.196173	12.857721	0	0	0
93	1	9	-1.131900	-20.269963	-1.547841	11.407027	0	0	0
94	1	9	-1.124000	-17.531855	1.065420	14.146511	0	0	0
95	1	8	0.525400	-20.657212	-1.965022	12.234513	0	0	0
96	1	8	0.525400	-20.669060	-1.759714	10.492928	0	0	0
97	1	8	0.529500	-16.854060	1.806454	14.146148	0	0	0
98	1	8	0.529500	-17.816976	0.492466	14.934865	0	0	0
99	1	5	0.153300	-15.211233	9.095812	9.490775	0	0	0
100	1	3	-0.136500	-15.720589	9.790659	11.334766	0	0	0
101	1	7	-0.315300	-16.499740	5.835567	12.481043	0	0	0
102	1	3	-0.165100	-16.326710	8.220140	13.131265	0	0	0
103	1	5	0.144000	-15.423428	10.831442	10.982370	0	0	0
104	1	3	-0.136500	-16.090262	9.557597	12.694432	0	0	0
105	1	2	-0.017800	-17.219983	5.435432	13.633922	0	0	0
106	1	5	0.153300	-16.542656	8.104867	14.189795	0	0	0
107	1	5	0.144000	-15.973871	10.337966	13.449169	0	0	0
108	1	1	0.088800	-17.892625	6.171308	13.813184	0	0	0
109	1	1	0.088800	-16.517974	5.219735	14.465349	0	0	0
110	1	1	0.088800	-17.672829	4.499588	13.497957	0	0	0
111	2	5	0.143900	-23.794920	-6.179562	21.645217	0	0	0
112	2	3	-0.166100	-23.959528	-6.607190	20.670164	0	0	0
113	2	3	-0.113600	-24.261728	-7.933116	20.435456	0	0	0
114	2	3	-0.120500	-23.985277	-5.699284	19.583366	0	0	0
115	2	5	0.140500	-24.303807	-8.555455	21.289330	0	0	0
116	2	3	-0.223700	-24.613422	-8.382922	19.149088	0	0	0
117	2	5	0.152200	-23.766470	-4.677830	19.849562	0	0	0
118	2	3	0.131600	-24.470290	-6.119816	18.290038	0	0	0
119	2	5	0.147100	-24.936194	-9.390948	19.033880	0	0	0
120	2	3	0.154200	-24.700410	-7.499802	18.050475	0	0	0
121	2	7	-0.345900	-24.773400	-5.224814	17.251369	0	0	0
122	2	7	-0.313500	-25.033883	-7.751480	16.748849	0	0	0
123	2	3	0.758800	-25.194234	-3.985432	17.398934	0	0	0
124	2	2	-0.004400	-25.397908	-9.054880	16.365642	0	0	0
125	2	9	-0.845200	-24.672633	-3.177961	16.475746	0	0	0
126	2	6	-0.466800	-25.858440	-3.684061	18.356273	0	0	0
127	2	1	0.087500	-26.204365	-9.534609	16.967341	0	0	0
128	2	1	0.087500	-24.521240	-9.685366	16.339227	0	0	0
129	2	1	0.087500	-25.662469	-9.133654	15.279624	0	0	0
130	2	2	0.114500	-24.011666	-3.592726	15.262430	0	0	0
131	2	2	0.199200	-24.928471	-1.671966	16.603817	0	0	0
132	2	2	0.080500	-22.593955	-4.057093	15.553249	0	0	0
133	2	1	0.121800	-24.000916	-2.789666	14.582903	0	0	0
134	2	1	0.121800	-24.713490	-4.325927	14.847272	0	0	0
135	2	9	-0.687000	-21.499754	-3.092616	15.807544	0	0	0
136	2	1	0.134800	-22.307110	-4.601798	14.667187	0	0	0
137	2	1	0.134800	-22.706650	-4.828267	16.340432	0	0	0
138	2	3	0.859200	-21.173366	-2.217381	14.764443	0	0	0
139	2	4	0.167600	-20.896189	-3.042891	17.054181	0	0	0
140	2	6	-0.474600	-21.470268	-2.472248	13.574489	0	0	0
141	2	9	-1.053000	-20.209463	-1.339296	15.024076	0	0	0
142	2	5	0.186400	-21.250247	-3.609777	17.874071	0	0	0
143	2	4	-0.281500	-19.847992	-2.194315	17.241278	0	0	0
144	2	8	0.559300	-19.929873	-0.755663	14.198662	0	0	0
145	2	3	0.689900	-19.455564	-1.257332	16.141072	0	0	0
146	2	2	-0.163600	-19.087037	-2.051012	18.564036	0	0	0
147	2	6	-0.490600	-18.449583	-0.540250	16.049591	0	0	0
148	2	1	0.101600	-18.770102	-2.967439	19.098599	0	0	0
149	2	1	0.101600	-19.793848	-1.686164	19.266853	0	0	0
150	2	1	0.101600	-18.224738	-1.478968	18.365993	0	0	0
151	2	3	-0.114800	-26.233438	-1.303003	15.961176	0	0	0
152	2	1	0.132300	-25.085269	-1.346212	17.683302	0	0	0
153	2	1	0.132300	-24.179211	-0.921668	16.278277	0	0	0
154	2	3	-0.120500	-27.438739	-1.566119	16.587655	0	0	0
155	2	3	-0.143500	-26.168929	-0.685003	14.695096	0	0	0
156	2	5	0.161900	-27.542056	-2.107620	17.522337	0	0	0
157	2	3	-0.183600	-28.655180	-1.273001	15.896691	0	0	0
158	2	5	0.162600	-25.250468	-0.555777	14.211670	0	0	0
159	2	3	0.158100	-27.358065	-0.437813	14.021018	0	0	0
160	2	5	0.157700	-29.628599	-1.522052	16.398950	0	0	0
161	2	3	0.071400	-28.589328	-0.713797	14.590426	0	0	0
162	2	7	-0.340300	-27.380723	0.232338	12.817715	0	0	0
163	2	7	-0.320800	-29.778581	-0.318879	14.025283	0	0	0
164	2	2	-0.017200	-26.765332	1.468237	12.809776	0	0	0
165	2	3	0.750800	-30.102137	0.945285	14.056123	0	0	0
166	2	1	0.096700	-27.056955	2.016030	11.900436	0	0	0
167	2	1	0.096700	-25.713949	1.320409	12.851123	0	0	0
168	2	1	0.096700	-27.042193	2.159350	13.582294	0	0	0
169	2	9	-0.949100	-30.998669	1.320860	13.135556	0	0	0
170	2	6	-0.407200	-29.537573	1.796745	14.723888	0	0	0
171	2	2	0.213200	-31.284137	2.706600	12.935547	0	0	0
172	2	2	0.068100	-31.785482	0.262870	12.369984	0	0	0
173	2	3	-0.081800	-30.507210	3.385956	11.786840	0	0	0
174	2	1	0.123000	32.279870	2.715898	12.705359	-1	0	0
175	2	1	0.123000	-31.246470	3.330647	13.832703	0	0	0
176	2	1	0.101500	-31.116852	-0.450203	12.010542	0	0	0
177	2	1	0.101500	32.240583	0.748002	11.628566	-1	0	0
178	2	1	0.101500	32.212739	-0.318138	12.985645	-1	0	0
179	2	3	-0.154800	-30.506644	4.804740	11.680335	0	0	0
180	2	3	-0.130500	-29.797806	2.645934	10.838702	0	0	0
181	2	5	0.142500	-31.059001	5.366518	12.502969	0	0	0
182	2	3	-0.133700	-29.817979	5.455249	10.652629	0	0	0
183	2	5	0.162700	-29.763467	1.548964	10.960318	0	0	0
184	2	3	0.167200	-29.144415	3.273995	9.751036	0	0	0
185	2	5	0.172300	-29.702667	6.516095	10.524124	0	0	0
186	2	3	0.077200	-29.209345	4.669825	9.655701	0	0	0
187	2	7	-0.342300	-28.492484	2.628899	8.762915	0	0	0
188	2	7	-0.345500	-28.596728	5.338803	8.610996	0	0	0
189	2	2	-0.009000	-27.600076	1.521619	8.991382	0	0	0
190	2	3	0.736100	-29.041000	5.233611	7.339853	0	0	0
191	2	1	0.089000	-28.055450	0.800602	9.620026	0	0	0
192	2	1	0.089000	-26.586831	1.846744	9.428583	0	0	0
193	2	1	0.089000	-27.384354	0.903396	8.181463	0	0	0
194	2	9	-0.854500	-28.599971	6.194847	6.560942	0	0	0
195	2	6	-0.493600	-29.894363	4.466862	6.980441	0	0	0
196	2	2	0.203800	-29.160121	6.397842	5.216413	0	0	0
197	2	2	0.057700	-27.500591	7.055825	6.975671	0	0	0
198	2	3	-0.087300	-29.951143	7.726971	5.093003	0	0	0
199	2	1	0.121900	-28.359169	6.365972	4.497506	0	0	0
200	2	1	0.121900	-29.680062	5.556727	4.885080	0	0	0
201	2	1	0.100300	-26.660720	6.605624	7.385401	0	0	0
202	2	1	0.100300	-27.738373	7.671972	7.792614	0	0	0
203	2	1	0.100300	-27.173310	7.699788	6.072180	0	0	0
204	2	3	-0.135500	-30.757190	8.164987	6.230235	0	0	0
205	2	3	-0.149100	-29.955644	8.428220	3.901861	0	0	0
206	2	5	0.144000	-30.728344	7.650406	7.251830	0	0	0
207	2	3	-0.145600	-31.614249	9.284694	6.069258	0	0	0
208	2	5	0.160000	-29.359665	8.128587	3.009616	0	0	0
209	2	3	0.117000	-30.691759	9.687447	3.797841	0	0	0
210	2	5	0.158100	32.292106	9.556730	6.803736	-1	0	0
211	2	3	0.110500	-31.542058	10.108704	4.892556	0	0	0
212	2	7	-0.368000	-30.764152	10.310659	2.566070	0	0	0
213	2	7	-0.369500	-32.241120	11.339175	4.748128	0	0	0
214	2	2	-0.005800	-29.779905	10.157785	1.607248	0	0	0
215	2	2	-0.006400	31.808719	11.890478	5.935572	-1	0	0
216	2	1	0.087700	-28.741921	10.236585	1.872659	0	0	0
217	2	1	0.087700	-30.043933	10.866570	0.852539	0	0	0
218	2	1	0.087700	-29.753324	9.194555	1.136200	0	0	0
219	2	1	0.087100	-32.181635	11.999728	6.760066	0	0	0
220	2	1	0.087100	30.936813	11.345794	6.263760	-1	0	0
221	2	1	0.087100	31.615116	12.973435	5.734610	-1	0	0
222	3	11	0.420000	14.715074	3.235103	-5.467862	0	-1	0
223	3	12	-0.140000	15.766520	2.917962	-4.095110	0	-1	0
224	3	12	-0.140000	15.348878	4.332875	-6.685957	0	-1	0
225	3	12	-0.140000	13.239933	3.867141	-4.750191	0	-1	0
226	4	11	0.420000	-27.028404	-0.664017	-3.971971	1	0	0
227	4	12	-0.140000	-27.523469	0.743659	-4.901446	1	0	0
228	4	12	-0.140000	-27.843293	-0.646580	-2.414339	1	0	0
229	4	12	-0.140000	-27.235161	-2.116929	-4.939887	1	0	0
230	5	11	0.420000	7.716638	-7.140396	-15.659973	1	-1	1
231	5	12	-0.140000	7.110630	-8.703902	-16.187959	1	-1	1
232	5	12	-0.140000	8.313692	-6.035364	-16.890011	1	-1	1
233	5	12	-0.140000	6.463061	-6.603826	-14.550378	1	-1	1
234	6	11	0.420000	5.958340	-29.711977	-3.883209	-1	0	0
235	6	12	-0.140000	7.132816	-28.620031	-4.603504	-1	0	0
236	6	12	-0.140000	4.753192	-28.973601	-2.837750	-1	0	0
237	6	12	-0.140000	5.082206	-30.253271	-5.307974	-1	0	0
238	7	11	0.420000	-32.218734	8.793302	18.942422	0	-1	-1
239	7	12	-0.140000	32.229032	9.457322	20.559027	-1	-1	-1
240	7	12	-0.140000	-32.229590	7.044014	19.116887	0	-1	-1
241	7	12	-0.140000	-30.889911	9.355006	17.937792	0	-1	-1
242	8	11	0.420000	-9.940803	0.673134	-9.188766	-1	0	1
243	8	12	-0.140000	-8.501014	-0.167181	-9.746835	-1	0	1
244	8	12	-0.140000	-9.833110	2.133257	-10.161909	-1	0	1
245	8	12	-0.140000	-9.420405	1.233171	-7.605697	-1	0	1
246	9	11	0.420000	21.028509	-28.951476	4.735411	-1	0	0
247	9	12	-0.140000	19.904114	-29.998747	5.589533	-1	0	0
248	9	12	-0.140000	20.402062	-27.312428	4.627482	-1	0	0
249	9	12	-0.140000	22.636953	-28.902743	5.443294	-1	0	0
250	10	11	0.420000	2.296189	-24.368826	30.728614	0	-1	1
251	10	12	-0.140000	1.052751	-25.598938	30.551836	0	-1	1
252	10	12	-0.140000	2.906347	-24.555570	-32.271383	0	-1	2
253	10	12	-0.140000	1.436129	-22.838444	30.822380	0	-1	1
254	11	11	0.420000	12.770104	16.365550	-12.602494	0	-1	0
255	11	12	-0.140000	11.361026	17.236639	-12.014047	0	-1	0
256	11	12	-0.140000	13.634251	17.261961	-13.843567	0	-1	0
257	11	12	-0.140000	12.441463	14.702355	-13.067619	0	-1	0
258	12	11	0.420000	24.067197	22.964588	-13.539983	-2	-1	1
259	12	12	-0.140000	24.171355	22.983664	-11.785175	-2	-1	1
260	12	12	-0.140000	24.457581	21.345771	-14.103541	-2	-1	1
261	12	12	-0.140000	25.016572	24.325063	-14.121668	-2	-1	1
262	13	11	0.420000	-13.236394	10.381283	-18.812109	0	0	1
263	13	12	-0.140000	-14.654170	10.071025	-17.820033	0	0	1
264	13	12	-0.140000	-11.969298	9.268588	-18.315180	0	0	1
265	13	12	-0.140000	-12.692813	12.045191	-18.649337	0	0	1
266	14	11	0.420000	14.186766	31.598111	29.124125	-2	1	-1
267	14	12	-0.140000	14.033578	31.807269	30.862903	-2	1	-1
268	14	12	-0.140000	14.555546	29.934331	28.692382	-2	1	-1
269	14	12	-0.140000	15.319972	-31.711543	28.920098	-2	2	-1
270	15	11	0.420000	-3.702778	-19.322380	12.082046	-1	-1	0
271	15	12	-0.140000	-2.262716	-18.995413	11.128171	-1	-1	0
272	15	12	-0.140000	-4.956381	-18.250866	11.473028	-1	-1	0
273	15	12	-0.140000	-3.300215	-19.128543	13.782321	-1	-1	0
274	16	11	0.420000	25.050223	-29.305403	-0.734778	-1	0	-1
275	16	12	-0.140000	26.162549	-30.534897	-0.150279	-1	0	-1
276	16	12	-0.140000	23.841186	-30.279174	-1.559741	-1	0	-1
277	16	12	-0.140000	24.198001	-28.596649	0.629754	-1	0	-1
278	17	11	0.420000	10.913506	29.112202	24.754716	-1	-3	-1
279	17	12	-0.140000	11.235898	27.725488	25.786051	-1	-3	-1
280	17	12	-0.140000	11.057038	28.607408	23.076876	-1	-3	-1
281	17	12	-0.140000	11.841940	30.453495	25.410085	-1	-3	-1
282	18	11	0.420000	28.864332	-29.865426	-17.899907	-1	-1	0
283	18	12	-0.140000	27.127973	-29.633662	-18.047911	-1	-1	0
284	18	12	-0.140000	29.206939	-31.515620	-17.399862	-1	-1	0
285	18	12	-0.140000	29.656332	-28.842356	-16.709685	-1	-1	0
286	19	11	0.420000	-24.497018	31.009564	-5.972515	0	-1	1
287	19	12	-0.140000	-24.188994	31.909931	-4.494331	0	-1	1
288	19	12	-0.140000	-24.186462	31.914441	-7.447410	0	-1	1
289	19	12	-0.140000	-23.648655	29.489143	-5.729276	0	-1	1
290	20	11	0.420000	-24.052872	14.763776	23.781291	0	0	1
291	20	12	-0.140000	-23.369074	13.967521	25.191598	0	0	1
292	20	12	-0.140000	-23.647333	16.474304	23.767332	0	0	1
293	20	12	-0.140000	-25.806909	14.658831	23.727405	0	0	1
294	21	11	0.420000	-5.284022	24.962910	16.875509	0	-1	1
295	21	12	-0.140000	-6.723903	23.973948	17.073661	0	-1	1
296	21	12	-0.140000	-4.383507	24.763482	18.372127	0	-1	1
297	21	12	-0.140000	-5.828937	26.633434	16.820926	0	-1	1
298	22	11	0.420000	20.754225	-31.035842	26.451563	-2	0	-1
299	22	12	-0.140000	21.467836	-30.204443	27.826372	-2	0	-1
300	22	12	-0.140000	19.357605	-31.847941	27.144751	-2	0	-1
301	22	12	-0.140000	21.723849	32.212881	25.982507	-2	-1	-1
302	23	11	0.420000	32.040906	16.967865	-12.399839	0	1	-1
303	23	12	-0.140000	30.334819	16.579108	-12.569240	0	1	-1
304	23	12	-0.140000	-32.160212	18.654709	-12.167104	1	1	-1
305	23	12	-0.140000	-31.830182	16.291590	-13.829840	1	1	-1
306	24	11	0.420000	5.805330	-18.175619	17.492400	0	-1	0
307	24	12	-0.140000	6.700493	-17.077468	18.533223	0	-1	0
308	24	12	-0.140000	6.178342	-19.853995	17.859117	0	-1	0
309	24	12	-0.140000	4.170662	-17.606487	17.799826	0	-1	0
310	25	11	0.420000	4.590874	30.835848	-30.425518	0	0	0
311	25	12	-0.140000	4.870841	29.101821	-30.352483	0	0	0
312	25	12	-0.140000	3.045214	31.053029	-31.234425	0	0	0
313	25	12	-0.140000	4.529379	31.524056	-28.808993	0	0	0
314	26	11	0.420000	13.906594	-0.443660	21.768411	0	0	-1
315	26	12	-0.140000	13.003145	0.992628	22.228216	0	0	-1
316	26	12	-0.140000	15.507916	0.002682	21.196477	0	0	-1
317	26	12	-0.140000	13.242259	-1.523959	20.550964	0	0	-1
318	27	11	0.420000	-27.506500	10.863104	-14.063808	0	0	0
319	27	12	-0.140000	-28.752811	11.092227	-12.845295	0	0	0
320	27	12	-0.140000	-26.706565	9.333850	-13.729065	0	0	0
321	27	12	-0.140000	-27.940066	11.096162	-15.751489	0	0	0
322	28	11	0.420000	16.746913	-13.821435	0.898054	-1	1	-1
323	28	12	-0.140000	18.321328	-14.274954	1.535318	-1	1	-1
324	28	12	-0.140000	16.541220	-12.084740	1.077341	-1	1	-1
325	28	12	-0.140000	16.789702	-14.199929	-0.818185	-1	1	-1
326	29	11	0.420000	3.866254	20.637562	-2.402893	0	0	1
327	29	12	-0.140000	5.577971	20.311200	-2.170343	0	0	1
328	29	12	-0.140000	3.561027	22.309915	-2.850817	0	0	1
329	29	12	-0.140000	2.885079	20.218845	-1.005562	0	0	1
330	30	11	0.420000	15.836755	14.253927	-8.125316	-2	-1	-1
331	30	12	-0.140000	16.017177	14.000337	-9.855548	-2	-1	-1
332	30	12	-0.140000	14.700520	13.443927	-7.056002	-2	-1	-1
333	30	12	-0.140000	17.343911	14.906125	-7.497874	-2	-1	-1
334	31	11	0.420000	9.586790	-27.290088	-19.634522	0	0	1
335	31	12	-0.140000	10.287001	-26.915874	-18.066010	0	0	1
336	31	12	-0.140000	8.390264	-26.096267	-20.117929	0	0	1
337	31	12	-0.140000	9.162159	-28.972545	-19.916641	0	0	1
338	32	11	0.420000	19.831113	17.028170	11.525669	0	0	2
339	32	12	-0.140000	21.320933	16.120896	11.306914	0	0	2
340	32	12	-0.140000	20.327352	18.461340	12.414676	0	0	2
341	32	12	-0.140000	19.017705	17.571136	10.064806	0	0	2
342	33	11	0.420000	32.040465	-7.790764	-17.533262	0	1	-1
343	33	12	-0.140000	-31.404893	-8.607707	-16.533000	1	1	-1
344	33	12	-0.140000	30.964527	-8.798904	-18.490641	0	1	-1
345	33	12	-0.140000	-31.982775	-6.307814	-18.249758	1	1	-1
346	34	11	0.420000	26.924769	-24.635068	-17.693245	-2	-1	0
347	34	12	-0.140000	28.246416	-25.587172	-17.031951	-2	-1	0
348	34	12	-0.140000	25.971820	-24.088210	-16.320875	-2	-1	0
349	34	12	-0.140000	27.525486	-23.335778	-18.713808	-2	-1	0
350	35	11	0.420000	-26.244027	31.025714	28.357620	0	-1	-1
351	35	12	-0.140000	-26.248069	-31.872432	28.608809	0	0	-1
352	35	12	-0.140000	-27.713763	30.291949	27.731496	0	-1	-1
353	35	12	-0.140000	-24.804693	30.337639	27.619085	0	-1	-1
354	36	11	0.420000	26.380597	-23.837661	-2.120590	0	0	-2
355	36	12	-0.140000	26.284535	-22.566617	-0.909895	0	0	-2
356	36	12	-0.140000	28.048729	-23.851360	-2.675308	0	0	-2
357	36	12	-0.140000	26.106075	-25.241832	-1.099069	0	0	-2
358	37	11	0.420000	-22.688728	18.565094	26.786507	1	-1	-1
359	37	12	-0.140000	-23.762643	17.464365	27.638367	1	-1	-1
360	37	12	-0.140000	-21.334144	17.484044	26.491556	1	-1	-1
361	37	12	-0.140000	-23.422084	19.340120	25.389335	1	-1	-1
362	38	11	0.420000	4.529954	-28.072472	16.431106	-1	1	-1
363	38	12	-0.140000	3.124280	-27.037204	16.224074	-1	1	-1
364	38	12	-0.140000	4.809983	-29.030089	14.983654	-1	1	-1
365	38	12	-0.140000	4.206180	-29.047152	17.857898	-1	1	-1
366	39	11	0.420000	-28.051807	-12.695548	-16.459786	-1	0	1
367	39	12	-0.140000	-28.115911	-11.418758	-17.666543	-1	0	1
368	39	12	-0.140000	-27.899790	-14.406848	-16.832489	-1	0	1
369	39	12	-0.140000	-28.693012	-12.435961	-14.843607	-1	0	1
370	40	11	0.420000	15.776192	-1.190974	-31.726662	-1	-1	1
371	40	12	-0.140000	16.733795	-0.681456	31.527986	-1	-1	0
372	40	12	-0.140000	16.584793	-1.757643	-30.272147	-1	-1	1
373	40	12	-0.140000	14.517901	-2.338726	-32.162475	-1	-1	1
374	41	11	0.420000	-31.658906	-29.269043	-19.704513	0	0	1
375	41	12	-0.140000	-31.596590	-30.327876	-18.302532	0	0	1
376	41	12	-0.140000	31.514846	-29.639947	-20.603774	-1	0	1
377	41	12	-0.140000	-30.318821	-29.803527	-20.709034	0	0	1
378	42	11	0.420000	-14.171703	-1.281628	32.161076	-1	-1	0
379	42	12	-0.140000	-13.173035	-1.148145	30.720448	-1	-1	0
380	42	12	-0.140000	-13.058010	-1.827973	-31.231332	-1	-1	1
381	42	12	-0.140000	-15.496452	-2.409491	31.909025	-1	-1	0
382	43	11	0.420000	5.189064	17.726723	10.346453	0	-1	0
383	43	12	-0.140000	4.965851	17.581825	12.084195	0	-1	0
384	43	12	-0.140000	6.812029	17.175513	9.955668	0	-1	0
385	43	12	-0.140000	4.980840	19.461314	10.150491	0	-1	0
386	44	11	0.420000	3.124958	26.711389	-12.482590	0	0	-2
387	44	12	-0.140000	4.372594	26.429205	-13.688551	0	0	-2
388	44	12	-0.140000	3.807482	26.129279	-10.970680	0	0	-2
389	44	12	-0.140000	2.703017	28.411746	-12.336588	0	0	-2
390	45	11	0.420000	3.668686	-16.451889	4.214675	-1	-1	0
391	45	12	-0.140000	3.927116	-15.563828	5.709709	-1	-1	0
392	45	12	-0.140000	2.184837	-17.370454	4.426794	-1	-1	0
393	45	12	-0.140000	3.750970	-15.486908	2.747500	-1	-1	0
394	46	11	0.420000	-22.792483	2.820412	30.320112	1	-2	0
395	46	12	-0.140000	-24.034048	3.101313	31.532620	1	-2	0
396	46	12	-0.140000	-23.596499	1.940050	29.028182	1	-2	0
397	46	12	-0.140000	-21.422359	2.005740	31.061484	1	-2	0
398	47	11	0.420000	-30.645788	6.027132	-13.620684	-1	0	1
399	47	12	-0.140000	-30.613152	5.850242	-11.871910	-1	0	1
400	47	12	-0.140000	-29.947041	7.558007	-14.129347	-1	0	1
401	47	12	-0.140000	32.308637	5.969048	-14.123096	-2	0	1
402	48	11	0.420000	23.985518	3.005243	-28.659833	-1	1	0
403	48	12	-0.140000	24.273047	3.831034	-27.134724	-1	1	0
404	48	12	-0.140000	24.091051	4.074646	-30.051165	-1	1	0
405	48	12	-0.140000	22.332339	2.439489	-28.853444	-1	1	0
406	49	11	0.420000	-12.238283	5.158726	-17.205928	0	1	1
407	49	12	-0.140000	-12.184216	5.761017	-18.856651	0	1	1
408	49	12	-0.140000	-12.670646	6.492421	-16.145322	0	1	1
409	49	12	-0.140000	-13.379030	3.834696	-17.015652	0	1	1
410	50	11	0.420000	19.188141	-9.590248	20.015683	0	0	0
411	50	12	-0.140000	17.743374	-10.579191	20.174438	0	0	0
412	50	12	-0.140000	20.262411	-9.699565	18.628398	0	0	0
413	50	12	-0.140000	19.302858	-8.045771	20.847544	0	0	0
414	51	11	0.420000	-13.934405	-11.489523	-8.676335	0	0	0
415	51	12	-0.140000	-15.559435	-11.617941	-8.018042	0	0	0
416	51	12	-0.140000	-13.749112	-12.283299	-10.233946	0	0	0
417	51	12	-0.140000	-13.839972	-9.764727	-9.003027	0	0	0
418	52	11	0.420000	-1.074299	17.261872	10.620432	0	-1	1
419	52	12	-0.140000	0.491226	17.373080	9.828392	0	-1	1
420	52	12	-0.140000	-1.887958	15.738125	10.293751	0	-1	1
421	52	12	-0.140000	-2.193261	18.528475	10.136485	0	-1	1
422	53	11	0.420000	-19.358613	1.746502	-9.863654	1	-1	-1
423	53	12	-0.140000	-19.860930	0.252776	-9.084537	1	-1	-1
424	53	12	-0.140000	-18.172704	1.358127	-11.101939	1	-1	-1
425	53	12	-0.140000	-20.883893	2.363739	-10.482608	1	-1	-1
426	54	11	0.420000	13.303021	-8.955827	-23.714465	-1	0	1
427	54	12	-0.140000	14.505999	-10.026472	-23.009392	-1	0	1
428	54	12	-0.140000	11.794194	-9.857993	-23.704471	-1	0	1
429	54	12	-0.140000	13.205394	-7.549960	-22.663479	-1	0	1
430	55	11	0.420000	-13.818910	4.245083	15.681028	1	2	0
431	55	12	-0.140000	-12.466548	3.926154	16.758044	1	2	0
432	55	12	-0.140000	-14.908138	2.916345	16.053320	1	2	0
433	55	12	-0.140000	-14.482952	5.861535	15.872595	1	2	0
434	56	11	0.420000	-7.294343	16.193759	28.817673	-2	1	-1
435	56	12	-0.140000	-6.489419	14.631831	28.872809	-2	1	-1
436	56	12	-0.140000	-7.606156	16.620795	27.141076	-2	1	-1
437	56	12	-0.140000	-6.810236	17.504255	29.884821	-2	1	-1
438	57	11	0.420000	-9.754283	15.443608	-24.192566	-2	1	-1
439	57	12	-0.140000	-10.627086	15.640657	-22.679308	-2	1	-1
440	57	12	-0.140000	-8.089190	15.984877	-24.034274	-2	1	-1
441	57	12	-0.140000	-9.579018	13.791533	-24.767452	-2	1	-1
442	58	11	0.420000	0.973121	-12.343314	15.202579	0	0	-1
443	58	12	-0.140000	-0.553810	-11.474247	15.263971	0	0	-1
444	58	12	-0.140000	1.119425	-13.517027	16.503178	0	0	-1
445	58	12	-0.140000	2.320735	-11.216318	15.136410	0	0	-1
446	59	11	0.420000	-12.829989	23.752822	-29.616593	0	-1	0
447	59	12	-0.140000	-11.820877	22.992768	-28.394065	0	-1	0
448	59	12	-0.140000	-13.381447	25.360514	-29.167388	0	-1	0
449	59	12	-0.140000	-14.091836	22.576109	-29.953717	0	-1	0
450	60	11	0.420000	21.289088	25.123168	21.669751	0	-1	0
451	60	12	-0.140000	22.942884	25.524355	22.110857	0	-1	0
452	60	12	-0.140000	20.143377	25.038838	23.000464	0	-1	0
453	60	12	-0.140000	20.780217	26.480732	20.675451	0	-1	0
454	61	11	0.420000	23.310209	28.797158	26.194157	-2	0	0
455	61	12	-0.140000	23.390573	27.221482	25.418689	-2	0	0
456	61	12	-0.140000	24.531708	30.020794	25.876008	-2	0	0
457	61	12	-0.140000	23.247020	28.469702	27.920235	-2	0	0
458	62	11	0.420000	14.355082	0.232977	-11.736813	-1	0	1
459	62	12	-0.140000	15.257382	1.321153	-12.781941	-1	0	1
460	62	12	-0.140000	14.850609	-1.453442	-11.768591	-1	0	1
461	62	12	-0.140000	12.794324	-0.055301	-12.492786	-1	0	1
462	63	11	0.420000	-1.205213	-18.998644	4.575189	0	0	-1
463	63	12	-0.140000	-1.009182	-19.743723	2.995001	0	0	-1
464	63	12	-0.140000	-2.867711	-18.441555	4.702920	0	0	-1
465	63	12	-0.140000	-0.796149	-20.195843	5.795823	0	0	-1
466	64	11	0.420000	-21.848509	1.869137	15.276802	0	0	-1
467	64	12	-0.140000	-21.805251	1.743974	17.029807	0	0	-1
468	64	12	-0.140000	-23.349767	1.340309	14.530392	0	0	-1
469	64	12	-0.140000	-20.959280	3.150070	14.464984	0	0	-1
470	65	11	0.420000	-27.531970	27.156922	23.255353	-1	-1	-2
471	65	12	-0.140000	-28.786775	26.153694	23.969190	-1	-1	-2
472	65	12	-0.140000	-27.540091	28.840458	23.761519	-1	-1	-2
473	65	12	-0.140000	-26.208571	26.406860	22.374111	-1	-1	-2
474	66	11	0.420000	-19.440583	-5.316177	2.350186	1	0	-1
475	66	12	-0.140000	-20.645128	-4.295794	3.123784	1	0	-1
476	66	12	-0.140000	-17.795740	-4.840310	2.748439	1	0	-1
477	66	12	-0.140000	-19.767083	-7.012896	2.674392	1	0	-1
478	67	11	0.420000	29.761962	-31.554713	30.773942	-1	1	0
479	67	12	-0.140000	30.355773	-30.398404	31.957539	-1	1	0
480	67	12	-0.140000	28.841275	31.692346	31.328823	-1	0	0
481	67	12	-0.140000	31.255440	-31.850189	29.894862	-1	1	0
482	68	11	0.420000	-5.186182	-13.224708	-26.969622	-1	1	2
483	68	12	-0.140000	-3.968439	-13.473750	-25.726382	-1	1	2
484	68	12	-0.140000	-4.629670	-11.966450	-28.063992	-1	1	2
485	68	12	-0.140000	-5.400741	-14.628401	-28.006046	-1	1	2
486	69	11	0.420000	9.562246	18.154558	16.536278	-1	0	-1
487	69	12	-0.140000	8.729437	16.885741	17.423463	-1	0	-1
488	69	12	-0.140000	8.403245	19.313022	15.899691	-1	0	-1
489	69	12	-0.140000	10.762754	18.831857	17.627429	-1	0	-1
490	70	11	0.420000	-0.424253	26.751792	-16.529075	0	0	0
491	70	12	-0.140000	0.511229	28.225803	-16.735779	0	0	0
492	70	12	-0.140000	-0.662259	26.268391	-14.855683	0	0	0
493	70	12	-0.140000	-1.992232	27.107720	-17.239935	0	0	0
494	71	11	0.420000	-16.866697	-29.093003	-27.202910	-1	1	1
495	71	12	-0.140000	-16.877984	-30.212186	-25.847231	-1	1	1
496	71	12	-0.140000	-15.574802	-29.459818	-28.337378	-1	1	1
497	71	12	-0.140000	-17.005908	-27.385629	-26.807867	-1	1	1
498	72	11	0.420000	-27.694613	22.912940	1.335923	-1	0	1
499	72	12	-0.140000	-27.500276	23.767714	2.859786	-1	0	1
500	72	12	-0.140000	-28.649777	23.949917	0.285730	-1	0	1